/*--------------------------------*- C++ -*----------------------------------*\
| =========                 |                                                 |
| \\      /  F ield         | OpenFOAM: The Open Source CFD Toolbox           |
|  \\    /   O peration     | Version:  2512                                  |
|   \\  /    A nd           | Website:  www.openfoam.com                      |
|    \\/     M anipulation  |                                                 |
\*---------------------------------------------------------------------------*/
FoamFile
{
    version     2.0;
    format      ascii;
    arch        "LSB;label=32;scalar=64";
    class       volScalarField;
    location    "0";
    object      T;
}
// * * * * * * * * * * * * * * * * * * * * * * * * * * * * * * * * * * * * * //

dimensions      [0 0 0 1 0 0 0];

internalField   nonuniform List<scalar> 
576
(
0.000184008
0.000422975
0.000630143
0.000868473
0.000976981
0.00109
0.0012667
0.00129225
0.00134663
0.00149005
0.00144461
0.00145145
0.00157247
0.00145735
0.0014184
0.00151853
0.00132886
0.00123833
0.00130945
0.00103217
0.000871651
0.000885287
0.000474578
0.000147767
0.000671932
0.00122586
0.00185159
0.00268163
0.00284544
0.00319335
0.00381801
0.00376326
0.0039349
0.00441588
0.00419513
0.00422303
0.00457578
0.00420933
0.00409939
0.00431558
0.00380243
0.0035387
0.00358622
0.00289816
0.00243043
0.00222984
0.00126428
0.00040824
0.000944412
0.00188552
0.00286683
0.0040204
0.00445779
0.00501696
0.00579033
0.0059351
0.00621025
0.0066982
0.00662388
0.00666591
0.00690189
0.00663168
0.00645055
0.00643286
0.0059538
0.00552461
0.00521597
0.00447185
0.00371977
0.00302119
0.00187268
0.00062371
0.000934738
0.00243399
0.00370931
0.00498149
0.00587853
0.0066259
0.00744461
0.00790671
0.00827227
0.00875685
0.0088664
0.00891432
0.00911353
0.00889508
0.00863773
0.00855159
0.00798543
0.00738948
0.00696858
0.0059837
0.00495515
0.00407555
0.00251022
0.000830015
0.00127976
0.0029821
0.00455447
0.00627421
0.00722651
0.00816314
0.00933697
0.00975241
0.0102149
0.0109646
0.0109481
0.011011
0.0113832
0.0109749
0.0106533
0.010638
0.00982442
0.00907891
0.00860962
0.00731678
0.00604121
0.00497522
0.00303805
0.00100613
0.00147012
0.00343558
0.00525179
0.00719594
0.00836772
0.00946284
0.0107324
0.0113286
0.01187
0.012597
0.0127279
0.0127982
0.0130407
0.0127457
0.0123623
0.0121171
0.0113729
0.0104918
0.00969437
0.00841016
0.00691731
0.00542936
0.00343558
0.00115051
0.00139928
0.00381338
0.00582065
0.00779626
0.00936315
0.0105877
0.0118547
0.0127372
0.013339
0.0140398
0.0143459
0.0144127
0.0146152
0.0143824
0.0139326
0.0136355
0.0128357
0.0118206
0.0109534
0.00948974
0.00778816
0.00620241
0.0038991
0.00129713
0.00169198
0.00420934
0.00642067
0.00876183
0.0103152
0.0116699
0.0132431
0.0140409
0.0147086
0.0156515
0.0158176
0.0158911
0.0162655
0.0158504
0.0153497
0.0151446
0.0141279
0.0130014
0.0121334
0.0104215
0.0085428
0.00685258
0.0042723
0.00142062
0.00183462
0.00452248
0.00689032
0.00937677
0.0110802
0.0125332
0.0141515
0.0150889
0.0158027
0.0166985
0.016996
0.0170684
0.0173124
0.0170183
0.016471
0.0160594
0.0151445
0.0139232
0.0127773
0.0111346
0.00910853
0.00707604
0.00452763
0.00151676
0.00171845
0.00476657
0.00724083
0.00968093
0.01171
0.0132309
0.0147942
0.015975
0.0167143
0.017558
0.0180138
0.0180735
0.0182772
0.0180536
0.0174561
0.0170179
0.0160817
0.0147692
0.0136057
0.0118452
0.00968035
0.00762845
0.00485599
0.00161758
0.00196645
0.00503029
0.00762496
0.0103527
0.0122974
0.0138857
0.0157012
0.016752
0.0175211
0.0185798
0.0188772
0.0189345
0.0193096
0.0189124
0.0182817
0.017962
0.0168449
0.0154658
0.0143555
0.0124097
0.0101388
0.00806091
0.00509582
0.00169597
0.00206367
0.00520893
0.00787547
0.010669
0.0126908
0.014313
0.0161174
0.0172604
0.0180379
0.019021
0.0194305
0.0194771
0.0197217
0.0194542
0.0187958
0.0182978
0.0173197
0.0158931
0.0145611
0.0127489
0.010404
0.00806372
0.00521568
0.00174636
0.00190012
0.00531189
0.00799848
0.0106631
0.0129334
0.0145577
0.0162486
0.0175839
0.0183489
0.01925
0.019796
0.0198216
0.0200255
0.0198365
0.0191492
0.018654
0.0176924
0.0162254
0.0149344
0.0130704
0.0106641
0.00838731
0.00540209
0.00179951
0.00209831
0.00542821
0.00814286
0.0110082
0.0131142
0.0147354
0.0166168
0.0177699
0.0185236
0.0196081
0.0199744
0.0199873
0.0203624
0.0200095
0.01931
0.0189645
0.0178628
0.0163814
0.0152053
0.0132265
0.0107944
0.0085788
0.00549373
0.00182782
0.00214185
0.00544801
0.00813593
0.0109743
0.013072
0.0146528
0.0164579
0.0176478
0.018367
0.019343
0.0197984
0.0197904
0.0200348
0.0198214
0.0191167
0.0186253
0.0177053
0.0162317
0.0148989
0.0131283
0.0107078
0.00832294
0.00545398
0.00182427
0.00191914
0.00537433
0.00797796
0.0105874
0.0128391
0.0143453
0.0159679
0.0172889
0.0179531
0.0188127
0.019378
0.019341
0.0195443
0.019417
0.0187095
0.0182551
0.0173937
0.0159407
0.014718
0.0129723
0.0105851
0.00836423
0.00546291
0.00181797
0.00205255
0.00529946
0.00781363
0.0105146
0.012503
0.0139212
0.0156609
0.016738
0.0173436
0.0183508
0.0187115
0.0186507
0.0190251
0.0187443
0.0180489
0.0177796
0.016825
0.0154191
0.0143847
0.0126093
0.0102955
0.0082455
0.0053624
0.00178118
0.0020233
0.0051048
0.00746193
0.010016
0.0118885
0.0131754
0.0147611
0.01581
0.0163323
0.0171938
0.0176177
0.017525
0.0177682
0.0176374
0.0169621
0.0165835
0.0158591
0.0145257
0.0134123
0.0119361
0.0097419
0.00764304
0.00510704
0.00170444
0.00171675
0.00478219
0.00691268
0.00910535
0.0110109
0.0121303
0.0134516
0.0145601
0.0149814
0.0156885
0.0161921
0.016063
0.0162648
0.0162265
0.015578
0.0152737
0.0146536
0.0134121
0.0124904
0.0111322
0.00909258
0.00729077
0.00486558
0.00161383
0.00175366
0.00442543
0.00630075
0.00843824
0.00995412
0.010883
0.0122364
0.0130321
0.0133442
0.014161
0.0144335
0.0142699
0.014642
0.0144603
0.0138496
0.0137673
0.0131039
0.0119783
0.0113294
0.0100442
0.0082051
0.00672139
0.0044813
0.00147999
0.00160871
0.00389649
0.00542612
0.00725431
0.0085188
0.00921085
0.0103238
0.011022
0.0112022
0.0118359
0.0121457
0.0119405
0.0121804
0.0121576
0.0115923
0.0114362
0.0110512
0.0100673
0.00942471
0.00854486
0.00696183
0.00559161
0.00388917
0.00128725
0.00115579
0.00315754
0.00425243
0.00554027
0.00669045
0.00711745
0.0078793
0.00856428
0.00860642
0.00904884
0.00940751
0.0091657
0.00936097
0.00943198
0.00892546
0.00887412
0.00863207
0.00781454
0.00744484
0.00678319
0.00550535
0.00460716
0.003228
0.00105173
0.000994535
0.0022713
0.00288526
0.00392026
0.0045333
0.00468866
0.00539298
0.00569741
0.00560977
0.00611946
0.00621769
0.00595322
0.00630595
0.00623182
0.00580284
0.00599026
0.00573635
0.0051134
0.00508123
0.0045857
0.00366871
0.0032632
0.00230951
0.000730756
0.000536473
0.000993126
0.00109445
0.001581
0.00177865
0.0017069
0.00204723
0.00216643
0.00201098
0.0022552
0.00233396
0.00211842
0.00228018
0.00232986
0.00205883
0.00213738
0.00215345
0.00181706
0.00179718
0.00175442
0.00131739
0.00114829
0.000960848
0.000283088
)
;

boundaryField
{
    bottom
    {
        type            fixedValue;
        value           uniform 0;
    }
    frontandback
    {
        type            empty;
    }
    left
    {
        type            fixedValue;
        value           uniform 0;
    }
    right
    {
        type            fixedValue;
        value           uniform 0;
    }
    top
    {
        type            fixedValue;
        value           uniform 0;
    }
}

