/*--------------------------------*- C++ -*----------------------------------*\
| =========                 |                                                 |
| \\      /  F ield         | OpenFOAM: The Open Source CFD Toolbox           |
|  \\    /   O peration     | Version:  2512                                  |
|   \\  /    A nd           | Website:  www.openfoam.com                      |
|    \\/     M anipulation  |                                                 |
\*---------------------------------------------------------------------------*/
FoamFile
{
    version     2.0;
    format      ascii;
    arch        "LSB;label=32;scalar=64";
    class       volScalarField;
    location    "0";
    object      T;
}
// * * * * * * * * * * * * * * * * * * * * * * * * * * * * * * * * * * * * * //

dimensions      [0 0 0 1 0 0 0];

internalField   nonuniform List<scalar> 
576
(
0.00648819
0.00685415
0.00720773
0.00586604
0.00630014
0.00674649
0.00668226
0.00598487
0.00648957
0.00690499
0.00583251
0.00638472
0.00661964
0.00581977
0.00641776
0.00618228
0.00594826
0.00659784
0.00581233
0.00624495
0.00696452
0.00613664
0.00680254
0.0076884
0.00707527
0.00605126
0.00598457
0.00608325
0.00443168
0.00464282
0.00545061
0.00351386
0.00390126
0.00465989
0.00308199
0.00361314
0.00405001
0.00306779
0.00373678
0.00395503
0.00347469
0.00429747
0.00428243
0.00437896
0.00540574
0.00497867
0.00601284
0.00742793
0.00574738
0.0053916
0.00496934
0.00306928
0.00281933
0.0028192
0.00240793
0.00134202
0.00162592
0.00182707
0.00065324
0.00117026
0.000848651
0.000645436
0.00138562
0.00144744
0.00132332
0.00231159
0.00374536
0.00280527
0.00411672
0.00407723
0.00540444
0.00721416
0.00573746
0.005714
0.00412798
0.00175303
0.00226946
0.00121001
0.000504349
0.000241278
0.00043665
0.000361805
0.000718411
0.00107872
0.000921418
0.000747094
0.000802142
0.000850787
0.000162556
0.000446112
0.000153203
0.00216429
0.00288044
0.00294638
0.00563777
0.00700557
0.00646744
0.00516589
0.00328111
0.00249066
0.000921479
0.000327554
6.83503e-05
0.00160442
0.00237932
0.00188887
0.00280012
0.00317545
0.00275745
0.00282695
0.00281774
0.00236744
0.00167643
0.00124332
0.000740977
0.000831208
0.00179438
0.00223329
0.00510994
0.00682946
0.00522168
0.00471241
0.0025838
0.000106264
0.000219728
0.00162725
0.00253415
0.00318062
0.00403439
0.00407176
0.00457992
0.00496258
0.00529014
0.00459768
0.00452666
0.00423681
0.00322486
0.00265616
0.000733032
0.000262168
0.000918604
0.00166908
0.00471241
0.00668678
0.00527292
0.00462119
0.00201652
0.00106175
0.000928579
0.00275195
0.00390578
0.00430266
0.0055035
0.00564479
0.00591134
0.00657721
0.00642308
0.00594779
0.00609709
0.00593474
0.0044011
0.00398518
0.00383163
0.00105517
4.73092e-05
0.000819515
0.00453547
0.00653833
0.00605522
0.00422523
0.0014148
3.04388e-06
0.00188062
0.00383442
0.00397445
0.00560631
0.00687314
0.00657577
0.00738298
0.00805563
0.00763967
0.0074158
0.00751424
0.00687398
0.00569338
0.00516591
0.00426473
0.00198697
0.00070733
0.000355934
0.00416227
0.00641485
0.00485717
0.00391209
0.000945143
0.00228709
0.00264563
0.00469772
0.00595322
0.00665435
0.0079672
0.00817323
0.00856141
0.00923289
0.00956189
0.0085837
0.00863549
0.00817912
0.00670992
0.00608768
0.00381599
0.0027
0.00127274
2.23986e-05
0.00390694
0.00632041
0.00495375
0.00376566
0.000596328
0.00294642
0.00317773
0.00539508
0.00684529
0.00744276
0.0088788
0.00916301
0.00948159
0.0102381
0.0100851
0.00952138
0.00962066
0.00931707
0.0075495
0.00693372
0.00648391
0.00331298
0.0018449
0.000606521
0.00367623
0.00621788
0.00578075
0.00350193
0.000210493
0.0015878
0.00376516
0.00605023
0.00643255
0.00821981
0.00968564
0.00950399
0.010345
0.011099
0.0106839
0.0103802
0.0104462
0.00969139
0.00831267
0.0076303
0.00648689
0.00387752
0.00230339
0.000852396
0.00343641
0.00613948
0.00462812
0.0033233
4.00217e-05
0.00357929
0.00415856
0.00647752
0.00791914
0.0087282
0.0102025
0.0104957
0.0108982
0.0116417
0.0119712
0.010922
0.0109604
0.0104175
0.00878743
0.00805758
0.00559978
0.00421671
0.00256822
0.000965286
0.00331654
0.0060908
0.00477208
0.00324323
0.000161321
0.00392861
0.00437823
0.00672189
0.0082996
0.00902876
0.0105134
0.0108549
0.0112409
0.0119861
0.0118333
0.0112814
0.0113137
0.0109532
0.00913726
0.00838994
0.00781265
0.00451529
0.00282867
0.00136538
0.00315303
0.00603594
0.00564889
0.00312691
0.000307406
0.00224336
0.00455905
0.00689998
0.00734817
0.00921481
0.0106881
0.0105324
0.0114192
0.0121518
0.0117367
0.0114544
0.0114746
0.0106939
0.00930766
0.00854591
0.00733663
0.00467139
0.00295894
0.00137028
0.0030614
0.00600763
0.00454995
0.00310711
0.00030048
0.00388465
0.00451687
0.0068173
0.00825967
0.00909272
0.0105315
0.0108177
0.0112432
0.011955
0.0122842
0.0112663
0.0112812
0.010745
0.00915014
0.00839617
0.0059376
0.00457318
0.00287199
0.0012245
0.00310114
0.00601289
0.00475306
0.00320808
0.000140797
0.00385285
0.00425665
0.00650954
0.00801891
0.00870644
0.0101176
0.0104177
0.0107956
0.0115055
0.0113522
0.0108346
0.0108741
0.0105543
0.00881125
0.00810525
0.00759625
0.0043899
0.0027496
0.0013423
0.0031195
0.00601748
0.00569465
0.00328295
2.18192e-05
0.00174974
0.00392058
0.00608577
0.00639225
0.00815558
0.00950819
0.00927504
0.010129
0.0108153
0.0103993
0.0101618
0.0102135
0.00950897
0.0082426
0.00758366
0.00651601
0.00402688
0.00246008
0.00103699
0.00322001
0.00605427
0.00466849
0.00347761
0.000373525
0.00292636
0.00330607
0.00533992
0.00656283
0.00722761
0.00849684
0.0086685
0.00903531
0.00968955
0.0100176
0.00905499
0.00912661
0.00870325
0.0072767
0.00669026
0.004451
0.00335366
0.00190612
0.000544605
0.00347537
0.00613271
0.00495545
0.00357926
0.000924474
0.00237083
0.00264948
0.00429454
0.00550267
0.00619869
0.00714589
0.00729346
0.0078306
0.00822757
0.00807272
0.00786506
0.00774259
0.00757287
0.00629212
0.00557662
0.00536858
0.00277073
0.00125713
0.000268837
0.00349587
0.00622162
0.00599354
0.00393602
0.0015347
0.000326638
0.00159266
0.00304757
0.00296782
0.00467061
0.00550879
0.00508518
0.00607207
0.00643441
0.00601625
0.00609885
0.00601411
0.00549667
0.0047425
0.0041428
0.00346071
0.00168279
0.000369648
0.000487132
0.00388015
0.00635546
0.00508309
0.00446496
0.00240933
0.000164629
0.000157351
0.0013754
0.0021255
0.0026605
0.00336677
0.00331062
0.00378428
0.00410507
0.00442987
0.00379617
0.00375685
0.00355588
0.00268979
0.00223179
0.000463379
0.000183411
0.000873953
0.00150682
0.00447228
0.00654991
0.00551641
0.0043949
0.00358473
0.00119425
0.000861993
0.000718329
6.96623e-05
0.00101184
0.000770937
0.000653798
0.00185506
0.00133025
0.00116885
0.00187954
0.00109001
0.00117331
0.00107963
2.09145e-05
0.000323059
0.000769259
0.0023301
0.00241477
0.00432445
0.00678372
0.00675267
0.00528114
0.0049502
0.00484462
0.00301915
0.00314679
0.00387564
0.00185504
0.00222568
0.00295631
0.00133475
0.00188223
0.00231984
0.00132063
0.00203261
0.00228034
0.00181609
0.00272205
0.00278742
0.00296674
0.00416674
0.00394532
0.00524294
0.0071047
0.00615532
0.00655932
0.006741
0.00550867
0.0057738
0.00612855
0.00615103
0.00538601
0.00582447
0.00627007
0.00521848
0.00571703
0.00547036
0.00522259
0.00577662
0.00574292
0.005399
0.00601842
0.00716415
0.00579803
0.00651839
0.00595014
0.0065916
0.00755407
)
;

boundaryField
{
    bottom
    {
        type            fixedValue;
        value           uniform 0;
    }
    frontandback
    {
        type            empty;
    }
    left
    {
        type            fixedValue;
        value           uniform 0;
    }
    right
    {
        type            fixedValue;
        value           uniform 0;
    }
    top
    {
        type            fixedValue;
        value           uniform 0;
    }
}

